Program Version,EnergyPlus, Version 9.4.0-998c4b761e, YMD=2021.03.17 13:50
1,5,Environment Title[],Latitude[deg],Longitude[deg],Time Zone[],Elevation[m]
2,8,Day of Simulation[],Month[],Day of Month[],DST Indicator[1=yes 0=no],Hour[],StartMinute[],EndMinute[],DayType
3,5,Cumulative Day of Simulation[],Month[],Day of Month[],DST Indicator[1=yes 0=no],DayType  ! When Daily Report Variables Requested
4,2,Cumulative Days of Simulation[],Month[]  ! When Monthly Report Variables Requested
5,1,Cumulative Days of Simulation[] ! When Run Period Report Variables Requested
6,1,Calendar Year of Simulation[] ! When Annual Report Variables Requested
7,1,Environment,Site Outdoor Air Drybulb Temperature [C] !Hourly
270,1,PLENUM-1,Zone Mean Radiant Temperature [C] !Hourly
271,1,SPACE1-1,Zone Mean Radiant Temperature [C] !Hourly
272,1,SPACE2-1,Zone Mean Radiant Temperature [C] !Hourly
273,1,SPACE3-1,Zone Mean Radiant Temperature [C] !Hourly
274,1,SPACE4-1,Zone Mean Radiant Temperature [C] !Hourly
275,1,SPACE5-1,Zone Mean Radiant Temperature [C] !Hourly
276,1,PLENUM-1,Zone Mean Air Temperature [C] !Hourly
277,1,PLENUM-1,Zone Operative Temperature [C] !Hourly
278,1,SPACE1-1,Zone Mean Air Temperature [C] !Hourly
279,1,SPACE1-1,Zone Operative Temperature [C] !Hourly
280,1,SPACE2-1,Zone Mean Air Temperature [C] !Hourly
281,1,SPACE2-1,Zone Operative Temperature [C] !Hourly
282,1,SPACE3-1,Zone Mean Air Temperature [C] !Hourly
283,1,SPACE3-1,Zone Operative Temperature [C] !Hourly
284,1,SPACE4-1,Zone Mean Air Temperature [C] !Hourly
285,1,SPACE4-1,Zone Operative Temperature [C] !Hourly
286,1,SPACE5-1,Zone Mean Air Temperature [C] !Hourly
287,1,SPACE5-1,Zone Operative Temperature [C] !Hourly
398,1,PLENUM-1,Zone Air System Sensible Heating Rate [W] !Hourly
399,1,PLENUM-1,Zone Air System Sensible Cooling Rate [W] !Hourly
400,1,PLENUM-1,Zone Air Temperature [C] !Hourly
401,1,PLENUM-1,Zone Air Humidity Ratio [] !Hourly
402,1,PLENUM-1,Zone Air Relative Humidity [%] !Hourly
441,1,SPACE1-1,Zone Air System Sensible Heating Rate [W] !Hourly
442,1,SPACE1-1,Zone Air System Sensible Cooling Rate [W] !Hourly
443,1,SPACE1-1,Zone Air Temperature [C] !Hourly
444,1,SPACE1-1,Zone Air Humidity Ratio [] !Hourly
445,1,SPACE1-1,Zone Air Relative Humidity [%] !Hourly
484,1,SPACE2-1,Zone Air System Sensible Heating Rate [W] !Hourly
485,1,SPACE2-1,Zone Air System Sensible Cooling Rate [W] !Hourly
486,1,SPACE2-1,Zone Air Temperature [C] !Hourly
487,1,SPACE2-1,Zone Air Humidity Ratio [] !Hourly
488,1,SPACE2-1,Zone Air Relative Humidity [%] !Hourly
527,1,SPACE3-1,Zone Air System Sensible Heating Rate [W] !Hourly
528,1,SPACE3-1,Zone Air System Sensible Cooling Rate [W] !Hourly
529,1,SPACE3-1,Zone Air Temperature [C] !Hourly
530,1,SPACE3-1,Zone Air Humidity Ratio [] !Hourly
531,1,SPACE3-1,Zone Air Relative Humidity [%] !Hourly
570,1,SPACE4-1,Zone Air System Sensible Heating Rate [W] !Hourly
571,1,SPACE4-1,Zone Air System Sensible Cooling Rate [W] !Hourly
572,1,SPACE4-1,Zone Air Temperature [C] !Hourly
573,1,SPACE4-1,Zone Air Humidity Ratio [] !Hourly
574,1,SPACE4-1,Zone Air Relative Humidity [%] !Hourly
613,1,SPACE5-1,Zone Air System Sensible Heating Rate [W] !Hourly
614,1,SPACE5-1,Zone Air System Sensible Cooling Rate [W] !Hourly
615,1,SPACE5-1,Zone Air Temperature [C] !Hourly
616,1,SPACE5-1,Zone Air Humidity Ratio [] !Hourly
617,1,SPACE5-1,Zone Air Relative Humidity [%] !Hourly
618,1,HOT WATER LOOP HOT WATER LOOP,Plant Supply Side Outlet Temperature [C] !Hourly
619,1,CHILLED WATER LOOP CHILLED WATER LOOP,Plant Supply Side Outlet Temperature [C] !Hourly
620,1,CHILLED WATER LOOP CONDENSER WATER LOOP,Plant Supply Side Outlet Temperature [C] !Hourly
768,1,PLENUM-1,Zone Thermal Comfort ASHRAE 55 Simple Model Summer or Winter Clothes Not Comfortable Time [hr] !Hourly
769,1,SPACE1-1,Zone Thermal Comfort ASHRAE 55 Simple Model Summer or Winter Clothes Not Comfortable Time [hr] !Hourly
770,1,SPACE2-1,Zone Thermal Comfort ASHRAE 55 Simple Model Summer or Winter Clothes Not Comfortable Time [hr] !Hourly
771,1,SPACE3-1,Zone Thermal Comfort ASHRAE 55 Simple Model Summer or Winter Clothes Not Comfortable Time [hr] !Hourly
772,1,SPACE4-1,Zone Thermal Comfort ASHRAE 55 Simple Model Summer or Winter Clothes Not Comfortable Time [hr] !Hourly
773,1,SPACE5-1,Zone Thermal Comfort ASHRAE 55 Simple Model Summer or Winter Clothes Not Comfortable Time [hr] !Hourly
774,1,PLENUM-1,Zone Heating Setpoint Not Met While Occupied Time [hr] !Hourly
775,1,PLENUM-1,Zone Cooling Setpoint Not Met While Occupied Time [hr] !Hourly
776,1,SPACE1-1,Zone Heating Setpoint Not Met While Occupied Time [hr] !Hourly
777,1,SPACE1-1,Zone Cooling Setpoint Not Met While Occupied Time [hr] !Hourly
778,1,SPACE2-1,Zone Heating Setpoint Not Met While Occupied Time [hr] !Hourly
779,1,SPACE2-1,Zone Cooling Setpoint Not Met While Occupied Time [hr] !Hourly
780,1,SPACE3-1,Zone Heating Setpoint Not Met While Occupied Time [hr] !Hourly
781,1,SPACE3-1,Zone Cooling Setpoint Not Met While Occupied Time [hr] !Hourly
782,1,SPACE4-1,Zone Heating Setpoint Not Met While Occupied Time [hr] !Hourly
783,1,SPACE4-1,Zone Cooling Setpoint Not Met While Occupied Time [hr] !Hourly
784,1,SPACE5-1,Zone Heating Setpoint Not Met While Occupied Time [hr] !Hourly
785,1,SPACE5-1,Zone Cooling Setpoint Not Met While Occupied Time [hr] !Hourly
848,1,SPACE1-1 REHEAT COIL,Heating Coil Heating Rate [W] !Hourly
851,1,SPACE2-1 REHEAT COIL,Heating Coil Heating Rate [W] !Hourly
854,1,SPACE3-1 REHEAT COIL,Heating Coil Heating Rate [W] !Hourly
857,1,SPACE4-1 REHEAT COIL,Heating Coil Heating Rate [W] !Hourly
860,1,SPACE5-1 REHEAT COIL,Heating Coil Heating Rate [W] !Hourly
863,1,VAV SYS 1 HEATING COIL,Heating Coil Heating Rate [W] !Hourly
914,1,VAV SYS 1 COOLING COIL,Cooling Coil Total Cooling Rate [W] !Hourly
915,1,VAV SYS 1 COOLING COIL,Cooling Coil Sensible Cooling Rate [W] !Hourly
916,1,SPACE1-1 VAV REHEAT,Zone Air Terminal VAV Damper Position [] !Hourly
917,1,SPACE2-1 VAV REHEAT,Zone Air Terminal VAV Damper Position [] !Hourly
918,1,SPACE3-1 VAV REHEAT,Zone Air Terminal VAV Damper Position [] !Hourly
919,1,SPACE4-1 VAV REHEAT,Zone Air Terminal VAV Damper Position [] !Hourly
920,1,SPACE5-1 VAV REHEAT,Zone Air Terminal VAV Damper Position [] !Hourly
958,1,MAIN BOILER,Boiler Heating Rate [W] !Hourly
984,1,MAIN BOILER,Boiler NaturalGas Rate [W] !Hourly
1071,1,MAIN CHILLER,Chiller Electricity Rate [W] !Hourly
1097,1,MAIN CHILLER,Chiller Evaporator Cooling Rate [W] !Hourly
1111,1,MAIN CHILLER,Chiller Condenser Heat Transfer Rate [W] !Hourly
1137,1,MAIN CHILLER,Chiller COP [W/W] !Hourly
1138,1,MAIN TOWER,Cooling Tower Heat Transfer Rate [W] !Hourly
1139,1,MAIN TOWER,Cooling Tower Fan Electricity Rate [W] !Hourly
End of Data Dictionary
1,RUN PERIOD 2,  39.74,-105.18,  -7.00,1829.00
2,1, 1,14, 0, 1, 0.00,60.00,Tuesday
7,-0.19999999999999996
270,17.873881946566276
271,19.439491705741586
272,19.480500139042744
273,19.353790879946759
274,19.488531313907666
275,20.949574357809519
276,17.97283464370146
277,17.923358295133867
278,19.297149178918539
279,19.368320442330064
280,19.34672324504975
281,19.413611692046247
282,19.20463079959445
283,19.279210839770604
284,19.354280120146926
285,19.421405717027296
286,20.82834063790861
287,20.888957497859065
768,0.0
769,0.0
770,0.0
771,0.0
772,0.0
773,0.0
774,0.0
775,0.0
776,0.0
777,0.0
778,0.0
779,0.0
780,0.0
781,0.0
782,0.0
783,0.0
784,0.0
785,0.0
398,0.0
399,0.0
400,17.97283464370146
401,0.001177619680315867
402,7.521302564348993
441,15.840000000000002
442,0.0
443,19.297149178918539
444,0.0010979679289449308
445,6.458231753701542
484,6.840000000000001
485,0.0
486,19.34672324504975
487,0.0009864723147214585
488,5.785321248655386
527,15.840000000000002
528,0.0
529,19.20463079959445
530,0.0011231379962760216
531,6.643927128445964
570,6.840000000000001
571,0.0
572,19.354280120146926
573,0.0009768907515627119
574,5.726589294115815
613,29.640000000000005
614,0.0
615,20.82834063790861
616,0.001429259304977486
617,7.639306785065601
618,66.86728429612718
619,7.2815111540609609
620,31.036188209091738
848,0.0
851,0.0
854,0.0
857,0.0
860,0.0
863,0.0
914,0.0
915,0.0
916,0.0
917,0.0
918,0.0
919,0.0
920,0.0
958,0.0
984,0.0
1071,0.0
1097,0.0
1111,0.0
1137,0.0
1138,0.0
1139,0.0
2,1, 1,14, 0, 2, 0.00,60.00,Tuesday
7,-4.375
270,17.204612357675939
271,18.872609016346979
272,18.961214915987556
273,18.808850231002695
274,18.963858162339226
275,20.718927243468614
276,17.317903118624334
277,17.261257738150137
278,18.635763080645707
279,18.754186048496345
280,18.764344286412319
281,18.862779601199937
282,18.567143869977195
283,18.68799705048994
284,18.766410197273268
285,18.865134179806245
286,20.531347931617736
287,20.625137587543173
768,0.0
769,0.0
770,0.0
771,0.0
772,0.0
773,0.0
774,0.0
775,0.0
776,0.0
777,0.0
778,0.0
779,0.0
780,0.0
781,0.0
782,0.0
783,0.0
784,0.0
785,0.0
398,0.0
399,0.0
400,17.317903118624334
401,0.001177619724161525
402,7.8565980592575779
441,15.840000000000002
442,0.0
443,18.635763080645707
444,0.001164787581703551
445,7.1527082073605909
484,6.840000000000001
485,0.0
486,18.764344286412319
487,0.001059812404126885
488,6.457222543262971
527,15.840000000000002
528,0.0
529,18.567143869977195
530,0.0011883817925732489
531,7.328700576559822
570,6.840000000000001
571,0.0
572,18.766410197273268
573,0.0010508220578163254
574,6.40172889582424
613,29.640000000000005
614,0.0
615,20.531347931617736
616,0.0014755873235838512
617,8.04989263278338
618,66.86728429612718
619,7.2815111540609609
620,31.036188209091738
848,0.0
851,0.0
854,0.0
857,0.0
860,0.0
863,0.0
914,0.0
915,0.0
916,0.0
917,0.0
918,0.0
919,0.0
920,0.0
958,0.0
984,0.0
1071,0.0
1097,0.0
1111,0.0
1137,0.0
1138,0.0
1139,0.0
2,1, 1,14, 0, 3, 0.00,60.00,Tuesday
7,-4.625
270,16.40979835770611
271,18.53178702086356
272,18.602136024788977
273,18.467994411511087
274,18.600144739616139
275,20.511881970415698
276,16.536903162930228
277,16.47335076031817
278,18.37173383095036
279,18.451760425906966
280,18.467095457212424
281,18.5346157410007
282,18.30321946855745
283,18.38560694003427
284,18.46462822246264
285,18.53238648103939
286,20.365585593601069
287,20.438733782008386
768,0.0
769,0.0
770,0.0
771,0.0
772,0.0
773,0.0
774,0.0
775,0.0
776,0.0
777,0.0
778,0.0
779,0.0
780,0.0
781,0.0
782,0.0
783,0.0
784,0.0
785,0.0
398,0.0
399,0.0
400,16.536903162930228
401,0.0011776197229235943
402,8.243204710429476
441,15.840000000000002
442,0.0
443,18.37173383095036
444,0.0012194299106527444
445,7.600516093079646
484,6.840000000000001
485,0.0
486,18.467095457212424
487,0.0011206136451227596
488,6.944163512570713
527,15.840000000000002
528,0.0
529,18.30321946855745
530,0.0012415566518896933
531,7.771492681469024
570,6.840000000000001
571,0.0
572,18.46462822246264
573,0.001112174987623957
574,6.8930486825680659
613,29.640000000000005
614,0.0
615,20.365585593601069
616,0.0015110965012291225
617,8.314959675995912
618,66.86728429612718
619,7.2815111540609609
620,31.036188209091738
848,0.0
851,0.0
854,0.0
857,0.0
860,0.0
863,0.0
914,0.0
915,0.0
916,0.0
917,0.0
918,0.0
919,0.0
920,0.0
958,0.0
984,0.0
1071,0.0
1097,0.0
1111,0.0
1137,0.0
1138,0.0
1139,0.0
2,1, 1,14, 0, 4, 0.00,60.00,Tuesday
7,-5.625
270,15.614755987278763
271,18.244427294180409
272,18.301931424658226
273,18.179471450250259
274,18.297602368177736
275,20.340543592323777
276,15.751566538259846
277,15.683161262769304
278,18.107792134164816
279,18.17610971417261
280,18.187367710597369
281,18.244649567627797
282,18.037745904775347
283,18.108608677512807
284,18.181986449492145
285,18.23979440883494
286,20.211619797366987
287,20.27608169484538
768,0.0
769,0.0
770,0.0
771,0.0
772,0.0
773,0.0
774,0.0
775,0.0
776,0.0
777,0.0
778,0.0
779,0.0
780,0.0
781,0.0
782,0.0
783,0.0
784,0.0
785,0.0
398,0.0
399,0.0
400,15.751566538259846
401,0.0011776197229554119
402,8.659025920971244
441,15.840000000000002
442,0.0
443,18.107792134164816
444,0.0012446973183588627
445,7.88016932181674
484,6.840000000000001
485,0.0
486,18.187367710597369
487,0.0011508018326734284
488,7.250531998340039
527,15.840000000000002
528,0.0
529,18.037745904775347
530,0.0012656804430207236
531,8.048091469052931
570,6.840000000000001
571,0.0
572,18.181986449492145
573,0.0011427942897337205
574,7.202608618736721
613,29.640000000000005
614,0.0
615,20.211619797366987
616,0.0015213748052574832
617,8.443754063405235
618,66.86728429612718
619,7.2815111540609609
620,31.036188209091738
848,0.0
851,0.0
854,0.0
857,0.0
860,0.0
863,0.0
914,0.0
915,0.0
916,0.0
917,0.0
918,0.0
919,0.0
920,0.0
958,0.0
984,0.0
1071,0.0
1097,0.0
1111,0.0
1137,0.0
1138,0.0
1139,0.0
2,1, 1,14, 0, 5, 0.00,60.00,Tuesday
7,-5.375
270,14.872282401530257
271,18.021031793811404
272,18.06449495500305
273,17.95742239470613
274,18.063652564668894
275,20.176943041473437
276,15.016772654902273
277,14.944527528216267
278,17.879449265551068
279,17.950240529681236
280,17.947021960903215
281,18.00575845795313
282,17.811496121883608
283,17.884459258294869
284,17.946304359068838
285,18.004978461868864
286,20.020507678823337
287,20.098725360148387
768,0.0
769,0.0
770,0.0
771,0.0
772,0.0
773,0.0
774,0.0
775,0.0
776,0.0
777,0.0
778,0.0
779,0.0
780,0.0
781,0.0
782,0.0
783,0.0
784,0.0
785,0.0
398,0.0
399,0.0
400,15.016772654902273
401,0.001177619722954716
402,9.077198023619389
441,15.840000000000002
442,0.0
443,17.879449265551068
444,0.0012650851847111683
445,8.124667855621725
484,6.840000000000001
485,0.0
486,17.947021960903215
487,0.0011762131521260663
488,7.522975095272384
527,15.840000000000002
528,0.0
529,17.811496121883608
530,0.0012849107290197645
531,8.287116582555552
570,6.840000000000001
571,0.0
572,17.946304359068838
573,0.0011686429308618448
574,7.474987510391063
613,29.640000000000005
614,0.0
615,20.020507678823337
616,0.0015265620800500166
617,8.573230873199018
618,66.86728429612718
619,7.2815111540609609
620,31.036188209091738
848,0.0
851,0.0
854,0.0
857,0.0
860,0.0
863,0.0
914,0.0
915,0.0
916,0.0
917,0.0
918,0.0
919,0.0
920,0.0
958,0.0
984,0.0
1071,0.0
1097,0.0
1111,0.0
1137,0.0
1138,0.0
1139,0.0
2,1, 1,14, 0, 6, 0.00,60.00,Tuesday
7,-5.0
270,14.225433324700646
271,17.86809761895184
272,17.8971473050439
273,17.806321310764635
274,17.894083462083267
275,20.03570980266101
276,14.374702593006857
277,14.300067958853753
278,17.735291664583174
279,17.801694641767506
280,17.787480232662245
281,17.842313768853076
282,17.669415292812475
283,17.737868301788557
284,17.78397066510571
285,17.839027063594487
286,19.868620403938686
287,19.95216510329985
768,0.0
769,0.0
770,0.0
771,0.0
772,0.0
773,0.0
774,0.0
775,0.0
776,0.0
777,0.0
778,0.0
779,0.0
780,0.0
781,0.0
782,0.0
783,0.0
784,0.0
785,0.0
398,0.0
399,0.0
400,14.374702593006857
401,0.0011776197229547269
402,9.461108019844094
441,15.840000000000002
442,0.0
443,17.735291664583174
444,0.0012822179978928595
445,8.30958186342421
484,6.840000000000001
485,0.0
486,17.787480232662245
487,0.001198544989870002
488,7.7428956462327369
527,15.840000000000002
528,0.0
529,17.669415292812475
530,0.0013008530974752064
531,8.465178758779352
570,6.840000000000001
571,0.0
572,17.78397066510571
573,0.0011914252487981419
574,7.698695635354074
613,29.640000000000005
614,0.0
615,19.868620403938686
616,0.0015280385915883326
617,8.662644053123941
618,66.86728429612718
619,7.2815111540609609
620,31.036188209091738
848,0.0
851,0.0
854,0.0
857,0.0
860,0.0
863,0.0
914,0.0
915,0.0
916,0.0
917,0.0
918,0.0
919,0.0
920,0.0
958,0.0
984,0.0
1071,0.0
1097,0.0
1111,0.0
1137,0.0
1138,0.0
1139,0.0
2,1, 1,14, 0, 7, 0.00,60.00,Tuesday
7,-4.375
270,14.036390325695564
271,17.85162204499099
272,17.859430165453074
273,17.80079816158381
274,17.85637744661157
275,19.907487622935397
276,15.12345019644222
277,14.579920261068893
278,17.99826375028482
279,17.924942897637906
280,17.998009024618154
281,17.928719595035614
282,17.998629482162575
283,17.899713821873193
284,17.996879677683855
285,17.926628562147714
286,19.346890812010387
287,19.627189217472894
768,0.0
769,0.0
770,0.0
771,0.0
772,0.0
773,0.0
774,0.0
775,0.0
776,0.0
777,0.0
778,0.0
779,0.0
780,0.0
781,0.0
782,0.0
783,0.0
784,0.0
785,0.0
398,1562.7525531138184
399,0.0
400,15.12345019644222
401,0.001286318870870553
402,9.843496796636846
441,200.13760814377319
442,4.6040342463978469
443,17.99826375028482
444,0.0012775482813288107
445,8.14329234824946
484,78.73277593134886
485,0.30687799995705969
486,17.998009024618154
487,0.0012427493676053024
488,7.922003559655112
527,234.77437728046596
528,6.7258251110523139
529,17.998629482162575
530,0.0012879625422209714
531,8.209354301114504
570,79.3248021727199
571,0.13006610397859953
572,17.996879677683855
573,0.0012422411366598326
574,7.919322969625094
613,0.0
614,331.8642779670895
615,19.346890812010387
616,0.0014411598936273536
617,8.439256807029969
618,79.88892215568862
619,7.2815111540609609
620,31.036188209091735
848,359.27900157665058
851,208.91908800608565
854,383.3271458527034
857,225.75079049993526
860,0.0
863,0.0
914,0.0
915,0.0
916,0.3
917,0.3
918,0.3
919,0.3
920,0.3
958,2137.269759326364
984,2715.164965952605
1071,0.0
1097,0.0
1111,0.0
1137,0.0
1138,0.0
1139,0.0
2,1, 1,14, 0, 8, 0.00,60.00,Tuesday
7,-2.125
270,14.804183810355293
271,18.991930346220717
272,19.719124952628929
273,18.968961282216708
274,19.015162947902078
275,20.513138085508577
276,16.881645279452504
277,15.842914544903899
278,22.841729032729178
279,20.916829689474949
280,22.85619002559505
281,21.287657489111987
282,22.835598906664936
283,20.90228009444082
284,22.85858139590096
285,20.93687217190152
286,22.777030992889505
287,21.645084539199045
768,0.0
769,0.0
770,0.0
771,0.0
772,0.0
773,0.0
774,0.0
775,0.0
776,0.0
777,0.0
778,0.0
779,0.0
780,0.0
781,0.0
782,0.0
783,0.0
784,0.0
785,0.0
398,3382.4330169043689
399,0.0
400,16.881645279452504
401,0.0013177141507813085
402,9.02128252692966
441,2942.3930426161807
442,0.0
443,22.841729032729178
444,0.0013016439084058613
445,6.16213969021918
484,1103.2592656189239
485,0.0
486,22.85619002559505
487,0.0013039646788338168
488,6.16682835021787
527,2926.8231394256047
528,0.0
529,22.835598906664936
530,0.001304155233526646
531,6.176611138721027
570,1363.3105858620175
571,0.0
572,22.85858139590096
573,0.0013062949237969014
574,6.1768618405078519
613,2465.9112796882279
614,0.0
615,22.777030992889505
616,0.001361569239461254
617,6.472008324238738
618,77.65239520958083
619,7.2815111540609609
620,31.036188209091738
848,3546.6239675829999
851,1550.061372975783
854,3514.8578485011614
857,1871.7528744293305
860,3235.6317925131277
863,0.0
914,0.0
915,0.0
916,0.38182617187500009
917,0.3576041666666667
918,0.39187500000000005
919,0.3617057291666667
920,0.44000000000000008
958,13091.764286017704
984,16519.00588522463
1071,0.0
1097,0.0
1111,0.0
1137,0.0
1138,0.0
1139,0.0
2,1, 1,14, 0, 9, 0.00,60.00,Tuesday
7,2.125
270,16.232690154078229
271,20.876863822114705
272,23.64124420486109
273,20.8772020519923
274,20.889890655605745
275,21.765474806562083
276,18.25494990229718
277,17.243820028187707
278,22.999756502226796
279,21.93831016217075
280,22.999933598922458
281,23.320588901891776
282,23.001018843128013
283,21.939110447560155
284,23.00165226854701
285,21.945771462076377
286,23.00049284536605
287,22.382983825964069
768,0.0
769,0.0
770,0.0
771,0.0
772,0.0
773,0.0
774,0.0
775,0.0
776,0.0
777,0.0
778,0.0
779,0.0
780,0.0
781,0.0
782,0.0
783,0.0
784,0.0
785,0.0
398,3563.3542870614749
399,0.0
400,18.25494990229718
401,0.001778909467620791
402,11.140327143755137
441,352.0014247060784
442,2.8301798063014305
443,22.999756502226796
444,0.0022777938396064988
445,10.683871338952092
484,0.0
485,501.11867023118909
486,22.999933598922458
487,0.0021995021073114545
488,10.318062646529095
527,339.10551350215129
528,5.718991624160708
529,23.001018843128013
530,0.0022870286732620816
531,10.726077288381994
570,189.9172605007087
571,0.0
572,23.00165226854701
573,0.002173906905232949
574,10.197283991148286
613,0.0
614,758.1264401872609
615,23.00049284536605
616,0.0023536223044379478
617,11.037530869679984
618,73.42784431137724
619,7.2815111540609609
620,31.036188209091735
848,1625.6885196608139
851,505.64675286801698
854,1545.377509782662
857,1319.4363078385059
860,685.6474633857094
863,3102.1731928075375
914,0.0
915,0.0
916,0.3
917,0.3
918,0.3
919,0.3
920,0.3
958,8170.262644210658
984,10377.165217563006
1071,0.0
1097,0.0
1111,0.0
1137,0.0
1138,0.0
1139,0.0
2,1, 1,14, 0,10, 0.00,60.00,Tuesday
7,5.875
270,17.66097806008499
271,21.82292306913709
272,24.047813098817593
273,21.860270287788006
274,21.86598998995956
275,22.523606410796505
276,19.49424762641434
277,18.577612843249669
278,23.000900611302908
279,22.41191184022
280,23.000758447026358
281,23.524285772921979
282,23.00067113737701
283,22.43047071258251
284,23.00229782030697
285,22.434143905133266
286,23.626993753044745
287,23.075300081920625
768,0.0
769,0.0
770,0.0
771,0.0
772,0.0
773,0.0
774,0.0
775,0.0
776,0.0
777,0.0
778,0.0
779,0.0
780,0.0
781,0.0
782,0.0
783,0.0
784,0.0
785,0.0
398,3118.287054756528
399,0.0
400,19.49424762641434
401,0.0028635489318804459
402,16.635603101400134
441,0.0
442,669.3171347425614
443,23.000900611302908
444,0.0031642121687264488
445,14.83915117226011
484,0.0
485,783.200581103367
486,23.000758447026358
487,0.0026702002973467036
488,12.532552919213443
527,0.0
528,693.9879879597461
529,23.00067113737701
530,0.0032133616772786258
531,15.06865060754457
570,0.0
571,289.31940148666276
572,23.00229782030697
573,0.002570933174497593
574,12.067436075869983
613,0.0
614,1517.6077925572557
615,23.626993753044745
616,0.0036114900731590317
617,16.278477651912096
618,69.70029940119761
619,7.2815111540609609
620,31.036188209091738
848,608.9507164371152
851,224.57134123083928
854,519.746271856627
857,840.558966639276
860,0.0
863,1351.7796197326125
914,0.0
915,0.0
916,0.3
917,0.3
918,0.3
919,0.3
920,0.3
958,3139.508334253117
984,4020.9359918314264
1071,0.0
1097,0.0
1111,0.0
1137,0.0
1138,0.0
1139,0.0
2,1, 1,14, 0,11, 0.00,60.00,Tuesday
7,8.25
270,19.002240056872276
271,22.303300235236838
272,23.603083977720087
273,22.422486239693137
274,22.446368952259769
275,23.02366417813101
276,20.688638097183096
277,19.845439077027686
278,23.000892475338188
279,22.65209635528751
280,23.00158448325706
281,23.30233423048857
282,22.999970079622015
283,22.711228159657578
284,23.00347740064484
285,22.724923176452309
286,23.98378516759147
287,23.50372467286124
768,0.0
769,0.0
770,0.0
771,0.0
772,0.0
773,0.0
774,0.0
775,0.0
776,0.0
777,0.0
778,0.0
779,0.0
780,0.0
781,0.0
782,0.0
783,0.0
784,0.0
785,0.0
398,2723.443693484836
399,0.0
400,20.688638097183096
401,0.003224119575983717
402,17.437687148253738
441,0.0
442,921.9907453664322
443,23.000892475338188
444,0.0032707810348038296
445,15.359652830887356
484,0.0
485,669.2227525366516
486,23.00158448325706
487,0.002494186625253396
488,11.72649827437699
527,0.0
528,976.4565053202068
529,22.999970079622015
530,0.0033556258149803808
531,15.756856889997593
570,0.0
571,428.83471284081306
572,23.00347740064484
573,0.002364811405651934
574,11.119253802345405
613,0.0
614,1704.2254155843476
615,23.98378516759147
616,0.0041534229307835638
617,18.35593718585406
618,67.33952095808383
619,7.2815111540609609
620,31.036188209091738
848,347.1672418276654
851,330.25315718147206
854,228.8605871867239
857,692.1188496529168
860,0.0
863,263.71162086190699
914,0.0
915,0.0
916,0.3
917,0.3
918,0.3
919,0.3
920,0.3304766644349425
958,1519.1395617053007
984,1951.40135730026
1071,0.0
1097,0.0
1111,0.0
1137,0.0
1138,0.0
1139,0.0
2,1, 1,14, 0,12, 0.00,60.00,Tuesday
7,9.625
270,20.130349428441386
271,22.724987140314803
272,23.621893669188027
273,22.88560318490459
274,22.921246461693295
275,23.256957629090416
276,21.60231173596646
277,20.866330582203923
278,23.000441296922128
279,22.862714218618465
280,23.001449804299797
281,23.31167173674391
282,23.005129669517915
283,22.945366427211256
284,23.003803829752778
285,22.96252514572304
286,23.996568683829766
287,23.626763156460087
768,0.0
769,0.0
770,0.0
771,0.0
772,0.0
773,0.0
774,0.0
775,0.0
776,0.0
777,0.0
778,0.0
779,0.0
780,0.0
781,0.0
782,0.0
783,0.0
784,0.0
785,0.0
398,2231.682994225256
399,0.0
400,21.60231173596646
401,0.0030465340373917037
402,15.608302207079357
441,0.0
442,996.7950873596897
443,23.000441296922128
444,0.002873788633023
445,13.516561095604555
484,0.0
485,625.490826128016
486,23.001449804299797
487,0.0020317535814258077
488,9.568442984066208
527,0.0
528,1056.2849563579067
529,23.005129669517915
530,0.002975563229170151
531,13.9892261760303
570,0.0
571,474.25823965277569
572,23.003803829752778
573,0.0019099360458199274
574,8.995232479458288
613,0.0
614,1679.8910768264319
615,23.996568683829766
616,0.003900897564038775
617,17.249444503027516
618,65.97275449101798
619,7.2815111540609609
620,31.036188209091738
848,183.53551409385629
851,303.54751729122378
854,65.30158774513648
857,567.96040686883
860,0.0
863,0.0
914,0.0
915,0.0
916,0.3
917,0.3
918,0.3
919,0.3
920,0.3485242880303019
958,858.9231256524979
984,1104.896876874977
1071,0.0
1097,0.0
1111,0.0
1137,0.0
1138,0.0
1139,0.0
2,1, 1,14, 0,13, 0.00,60.00,Tuesday
7,10.0
270,20.93783410563229
271,22.76628611049916
272,23.29167796499729
273,22.844490944617019
274,22.912187181551368
275,23.2620307334715
276,22.1512907598689
277,21.544562432750597
278,23.002341773622356
279,22.884313942060758
280,23.001328904999079
281,23.146503434998189
282,23.001174086027324
283,22.92283251532217
284,23.00401638995742
285,22.958101785754395
286,23.854133142751335
287,23.558081938111415
768,0.0
769,0.0
770,0.0
771,0.0
772,0.0
773,0.0
774,0.0
775,0.0
776,0.0
777,0.0
778,0.0
779,0.0
780,0.0
781,0.0
782,0.0
783,0.0
784,0.0
785,0.0
398,1697.7752996816444
399,0.0
400,22.1512907598689
401,0.0024825171295012337
402,12.293917481154235
441,0.0
442,780.7705539022409
443,23.002341773622356
444,0.0021857406909797148
445,10.275365092629969
484,0.0
485,444.88757842152077
486,23.001328904999079
487,0.001526356742030519
488,7.1836335052622479
527,0.0
528,810.8728367026663
529,23.001174086027324
530,0.002272996216378074
531,10.684781776073923
570,0.0
571,366.28906153012329
572,23.00401638995742
573,0.0014413383364088435
574,6.783398171333673
613,0.0
614,1405.6768146521322
615,23.854133142751335
616,0.0031416226060200296
617,14.00547014111876
618,65.6
619,7.2815111540609609
620,31.036188209091738
848,375.7685784447434
851,465.7618735882075
854,287.3299504057186
857,655.6531914024972
860,0.0
863,0.0
914,0.0
915,0.0
916,0.3
917,0.3
918,0.3
919,0.3
920,0.3
958,1604.7440488857292
984,2061.518548039704
1071,0.0
1097,0.0
1111,0.0
1137,0.0
1138,0.0
1139,0.0
2,1, 1,14, 0,14, 0.00,60.00,Tuesday
7,10.625
270,21.715319469989074
271,24.123154919884308
272,23.59086864561773
273,23.273099463932249
274,23.302716905717458
275,23.445717931949358
276,22.878729522027159
277,22.297024496008114
278,23.652973079119329
279,23.888063999501818
280,23.000770950609004
281,23.295819798113365
282,23.37777735812607
283,23.32543841102916
284,23.00105062050398
285,23.151883763110719
286,23.994150483432429
287,23.719934207690895
768,0.0
769,0.0
770,0.0
771,0.0
772,0.0
773,0.0
774,0.0
775,0.0
776,0.0
777,0.0
778,0.0
779,0.0
780,0.0
781,0.0
782,0.0
783,0.0
784,0.0
785,0.0
398,1642.686955851188
399,0.0
400,22.878729522027159
401,0.0021276493730963826
402,10.065179833237867
441,0.0
442,1277.6367493901744
443,23.652973079119329
444,0.002136457485821758
445,9.637754302784169
484,0.0
485,617.8976022685974
486,23.000770950609004
487,0.001658220434542185
488,7.795248215696198
527,0.0
528,1021.7632875919387
529,23.37777735812607
530,0.0022312342089169667
531,10.234394266783898
570,0.0
571,550.3105898559303
572,23.00105062050398
573,0.0015912545892279107
574,7.481127407108969
613,0.0
614,1779.1729069412966
615,23.994150483432429
616,0.0028664851979097419
617,12.667516864956643
618,65.6
619,7.2815111540609609
620,31.036188209091738
848,0.0
851,200.29122751466765
854,0.0
857,367.702179109655
860,0.0
863,0.0
914,0.0
915,0.0
916,0.34740353171348578
917,0.3
918,0.3
919,0.3
920,0.4159965203589311
958,421.4566437389758
984,542.6158171849861
1071,0.0
1097,0.0
1111,0.0
1137,0.0
1138,0.0
1139,0.0
2,1, 1,14, 0,15, 0.00,60.00,Tuesday
7,12.25
270,22.635287988835779
271,26.674744328260034
272,23.730690392640214
273,23.616904199256955
274,23.75642871435539
275,23.77378508163986
276,23.709946712567516
277,23.17261735070165
278,23.996679428571715
279,25.33571187841587
280,23.001169176716819
281,23.365929784678518
282,23.823851033299925
283,23.72037761627844
284,23.001167575826999
285,23.378798145091197
286,23.99687681082925
287,23.88533094623456
768,0.0
769,0.0
770,0.0
771,0.0
772,0.0
773,0.0
774,0.0
775,0.0
776,0.0
777,0.0
778,0.0
779,0.0
780,0.0
781,0.0
782,0.0
783,0.0
784,0.0
785,0.0
398,1497.0937887447954
399,0.0
400,23.709946712567516
401,0.0023478615282279586
402,10.564863414831642
441,0.0